
KNOT1
tra  101  0.0000E+00  0.0000E+00  0.0000E+00
rot  122  0.0000E+00  0.0000E+00  0.0000E+00
exp  123  0.2066E-02

KNOT1
tra  102  0.1308E-02 -0.1269E-01  0.2026E-11
rot  164  0.1701E-12 -0.4084E-11 -0.4828E-02
exp  165 -0.3109E-02

KNOT1
tra  103  0.4947E-02  0.0000E+00  0.7719E-11
rot  206 -0.7943E-14 -0.7178E-11  0.2142E-01
exp  207  0.1027E-02

KNOT1
tra  104  0.3474E-02 -0.6313E-02  0.4595E-12
rot  248 -0.1469E-12 -0.2416E-11 -0.8487E-02
exp  249  0.4032E-03

KNOT1
tra  105 -0.3127E-03 -0.8470E-02  0.4531E-11
rot  298  0.3722E-13 -0.5638E-11  0.4034E-02
exp  299  0.1681E-02

 displacements (vx,vy,vz) for set NALLFRAME and time  0.1000000E+01

       101  0.000000E+00  0.000000E+00  0.000000E+00
       102  1.308045E-03 -1.268544E-02  2.026269E-12
       103  4.946988E-03 -1.188811E-18  7.719036E-12
       104  3.473928E-03 -6.313352E-03  4.594814E-13
       105 -3.127119E-04 -8.470131E-03  4.530504E-12

 forces (fx,fy,fz) for set NALLFRAME and time  0.1000000E+01

       101  1.279113E-08  5.948584E+03  2.976594E-08
       102 -9.073119E-09 -1.000000E+04 -3.364039E-08
       103  3.006426E-08  4.051416E+03  1.800981E-08
       104  2.025081E-08  1.530134E-08 -2.360684E-08
       105 -5.401216E-08 -6.720802E-08  9.484211E-09
